<VTKFile type="PolyData" version="1.0" byte_order="LittleEndian" header_type="UInt64">
  <PolyData>
    <Piece NumberOfPoints="225" NumberOfVerts="0" NumberOfLines="0" NumberOfStrips="0" NumberOfPolys="196">
      <PointData>
        <DataArray type="Float32" Name="zvalue" NumberOfComponents="1" format="ascii" RangeMin="-2.052063244915268" RangeMax="2.312535423847214">
          2.312535423847214 2.312535423847214 2.312535423847214 2.312535423847214 2.312535423847214 2.312535423847214
          2.312535423847214 2.312535423847214 2.312535423847214 2.312535423847214 2.312535423847214 2.312535423847214
          2.312535423847214 2.312535423847214 2.312535423847214 2.312535423847214 2.312535423847214 2.312535423847214
          2.312535423847214 2.312535423847214 2.312535423847214 2.312535423847214 2.312535423847214 2.312535423847214
          2.312535423847214 2.312535423847214 2.312535423847214 2.312535423847214 2.312535423847214 2.312535423847214
          2.312535423847214 2.312535423847214 2.312535423847214 2.312535423847214 2.312535423847214 2.312535423847214
          2.312535423847214 2.21992651859383 2.176850803324224 2.2917578317845515 2.312535423847214 2.312535423847214
          2.312535423847214 2.312535423847214 2.312535423847214 2.312535423847214 2.312535423847214 2.312535423847214
          2.312535423847214 2.3113005129418283 2.142823403305623 1.9922914284265947 1.943099071243616 1.960804059223375
          1.9630838900918746 2.294890102756491 2.312535423847214 2.312535423847214 2.312535423847214 2.312535423847214
          2.312535423847214 2.312535423847214 2.312535423847214 2.0652893871997016 1.824789712647013 1.5828673733073255
          1.300068326732801 1.1222163948547923 1.225822280005892 1.574851732785823 1.9224121732192139 2.312535423847214
          2.312535423847214 2.312535423847214 2.312535423847214 2.312535423847214 2.312535423847214 2.068523251276455
          1.8061877127117403 1.2335125720469389 0.6393968256073341 0.015462866947346943 -0.44042965123143046 -0.16623602175575186
          0.7335543843056579 1.5942642791385544 2.081959387805586 2.312535423847214 2.312535423847214 2.312535423847214
          2.312535423847214 2.312535423847214 1.985548249334135 1.5435787915634256 0.6147662185486714 -0.406642955581489
          -1.4385674941660727 -1.843851106511739 -1.4391191133807335 -0.19060301366381563 1.0685410630799645 1.7645199934207316
          2.1010709629818067 2.312535423847214 2.312535423847214 2.312535423847214 2.2003229550132923 2.032312949052369
          1.4414424842113123 0.37717834897398506 -0.9311968633573838 -1.9059023279249154 -2.052063244915268 -1.852187363450189
          -0.71529631914066 0.647201403701293 1.4322242332013817 1.7982383024714534 2.312535423847214 2.312535423847214
          2.312535423847214 2.1172601085238276 2.0910214461861645 1.6042012037210776 0.6832667885146639 -0.6188514650758399
          -1.6414810340903854 -1.9589141678392776 -1.6314792696770413 -0.45908692026668135 0.7063773102806108 1.3115457739181342
          1.6957022094722585 2.312535423847214 2.312535423847214 2.312535423847214 2.0742124635710093 2.1385916988910134
          1.854418272990603 1.1569037836714033 0.1757238159428947 -0.6242907786811782 -1.0061624050911835 -0.5354988999143985
          0.307482404111 1.0064790695743135 1.2837852231488864 1.7665838562659522 2.312535423847214 2.312535423847214
          2.312535423847214 2.1749864671142856 2.3083882836615057 2.1426656036417615 1.599704485132072 0.9895677110238424
          0.5839024577889257 0.387983006906852 0.6059641336526066 0.9858900705213489 1.259492577871079 1.6000672626017178
          2.2115225619768504 2.312535423847214 2.312535423847214 2.312535423847214 2.312535423847214 2.1551912232377997
          2.2286366651568486 1.9774547405089102 1.6336299909915295 1.3774040669526704 1.1986032978228678 1.206529520908935
          1.289857189586274 1.6205980584938684 2.2542861582401867 2.312535423847214 2.312535423847214 2.312535423847214
          2.312535423847214 2.312535423847214 2.312535423847214 2.2545230100577065 2.1221307794866826 2.0055066412605145
          1.7563752676615614 1.4559970820953616 1.3182568610853203 1.6560527993398342 2.312535423847214 2.312535423847214
          2.312535423847214 2.312535423847214 2.312535423847214 2.312535423847214 2.312535423847214 2.312535423847214
          2.312535423847214 2.312535423847214 2.1391740344591224 1.8884983230284162 1.6146409240638966 1.8194558292166467
          2.312535423847214 2.312535423847214 2.312535423847214 2.312535423847214 2.312535423847214 2.312535423847214
          2.312535423847214 2.312535423847214 2.312535423847214 2.312535423847214 2.312535423847214 2.312535423847214
          2.312535423847214 2.312535423847214 2.312535423847214 2.312535423847214 2.312535423847214 2.312535423847214
          2.312535423847214 2.312535423847214 2.312535423847214 
        </DataArray>
      </PointData>
      <CellData>
        <DataArray type="Float32" Name="averaged zvalue" NumberOfComponents="1" format="ascii" RangeMin="-1.8895901936924615" RangeMax="2.312535423847214">
          2.312535423847214 2.312535423847214 2.312535423847214 2.312535423847214 2.312535423847214 2.312535423847214
          2.312535423847214 2.312535423847214 2.312535423847214 2.312535423847214 2.312535423847214 2.312535423847214
          2.312535423847214 2.312535423847214 2.312535423847214 2.312535423847214 2.312535423847214 2.312535423847214
          2.312535423847214 2.312535423847214 2.289383197533868 2.2554620424031206 2.273419870700801 2.307341025831548
          2.312535423847214 2.312535423847214 2.312535423847214 2.312535423847214 2.312535423847214 2.312535423847214
          2.312535423847214 2.3122266961208675 2.26979869098547 2.1900464198566616 2.1169631105278137 2.075170113096261
          2.0981241461060063 2.2155668121200325 2.3081240935745333 2.312535423847214 2.312535423847214 2.312535423847214
          2.312535423847214 2.312535423847214 2.2507239146853357 2.128478759158939 1.9654452505504476 1.7545126329430862
          1.5894188053144511 1.562985451331919 1.681140490526741 1.9388094747133504 2.210593280917533 2.312535423847214
          2.312535423847214 2.312535423847214 2.312535423847214 2.251532380704524 2.0631339437587775 1.7324448461513484
          1.3201416209021528 0.884448848148702 0.49932948432587754 0.4353432504683755 0.8419980938354052 1.4562706423623122
          1.977792816002642 2.254891414836807 2.312535423847214 2.312535423847214 2.312535423847214 2.1697855870762544
          1.850959501221439 1.299511323717694 0.5202581651553639 -0.29758768929822016 -0.9268463462404738 -0.9724089732199137
          -0.2656009411236608 0.8014391782150903 1.6273211808612091 2.0650214420138346 2.259669308630862 2.312535423847214
          2.2844823066387336 2.1326798943117526 1.7507206185403106 0.9942414608243486 -0.08647381285405409 -1.170577410257465
          -1.8100960433794986 -1.7968052070644822 -1.0493014524088495 0.20246078349419547 1.2281216733508427 1.7740133730188434
          2.131095028286922 2.312535423847214 2.2356634778078868 2.1102293646939136 1.7922445207927309 1.0265222063552597
          -0.12240079773614368 -1.274357922612131 -1.8895901936924615 -1.873661011470444 -1.164512468133643 0.04479886864364058
          1.024337180275355 1.559427629765807 2.029752839909535 2.312535423847214 2.2041358549473165 2.105271429293004
          1.9220581554472145 1.3246975122244369 0.3492607307632805 -0.6772248654761273 -1.3077120964255062 -1.2830136856304752
          -0.5796456714367803 0.39031296592481074 1.0770468442304861 1.5144042657013077 2.02183922835816 2.312535423847214
          2.218567444594931 2.1740447283094535 2.111015964796221 1.68842303635896 0.9804749489425532 0.2812258015186212
          -0.164641929769146 -0.13692854111153088 0.34095942709263927 0.8898360305194353 1.2874560332989993 1.7154897259983517
          2.1507943164843075 2.312535423847214 2.2781481846639817 2.2377753494652013 2.208720443924479 1.987115373609898
          1.5500892319140886 1.146126056689242 0.8869732073678289 0.8497699898228155 1.0220602286672913 1.2889594741181427
          1.6836110143017131 2.094602851666492 2.287282208379623 2.312535423847214 2.312535423847214 2.2731993736948604
          2.2377215805748922 2.145686298802537 1.9346805380619092 1.693228991716569 1.4470949286331154 1.294846690478121
          1.3676740927300908 1.7197608678167975 2.124988766107121 2.297973107445457 2.312535423847214 2.312535423847214
          2.312535423847214 2.312535423847214 2.298032320399837 2.250431159309704 2.1448367197633833 1.9473885666024038
          1.678877899212309 1.5520876741153065 1.7765752283722538 2.148414767720369 2.312535423847214 2.312535423847214
          2.312535423847214 2.312535423847214 2.312535423847214 2.312535423847214 2.312535423847214 2.312535423847214
          2.269195076500191 2.1631858012954917 2.0320525236966853 2.0147919002437424 2.189265525189572 2.312535423847214
          2.312535423847214 2.312535423847214 2.312535423847214 2.312535423847214 
        </DataArray>
      </CellData>
      <Points>
        <DataArray type="Float32" Name="Points" NumberOfComponents="3" format="ascii" RangeMin="-2.052063244915268" RangeMax="2.312535423847214">
          -1.0 -1.0 2.312535423847214 -0.8571428571428572 -1.0 2.312535423847214
          -0.7142857142857143 -1.0 2.312535423847214 -0.5714285714285714 -1.0 2.312535423847214
          -0.4285714285714286 -1.0 2.312535423847214 -0.2857142857142858 -1.0 2.312535423847214
          -0.1428571428571429 -1.0 2.312535423847214 0.0 -1.0 2.312535423847214
          0.1428571428571428 -1.0 2.312535423847214 0.2857142857142856 -1.0 2.312535423847214
          0.4285714285714284 -1.0 2.312535423847214 0.5714285714285714 -1.0 2.312535423847214
          0.7142857142857142 -1.0 2.312535423847214 0.857142857142857 -1.0 2.312535423847214
          1.0 -1.0 2.312535423847214 -1.0 -0.8571428571428572 2.312535423847214
          -0.8571428571428572 -0.8571428571428572 2.312535423847214 -0.7142857142857143 -0.8571428571428572 2.312535423847214
          -0.5714285714285714 -0.8571428571428572 2.312535423847214 -0.4285714285714286 -0.8571428571428572 2.312535423847214
          -0.2857142857142858 -0.8571428571428572 2.312535423847214 -0.1428571428571429 -0.8571428571428572 2.312535423847214
          0.0 -0.8571428571428572 2.312535423847214 0.1428571428571428 -0.8571428571428572 2.312535423847214
          0.2857142857142856 -0.8571428571428572 2.312535423847214 0.4285714285714284 -0.8571428571428572 2.312535423847214
          0.5714285714285714 -0.8571428571428572 2.312535423847214 0.7142857142857142 -0.8571428571428572 2.312535423847214
          0.857142857142857 -0.8571428571428572 2.312535423847214 1.0 -0.8571428571428572 2.312535423847214
          -1.0 -0.7142857142857143 2.312535423847214 -0.8571428571428572 -0.7142857142857143 2.312535423847214
          -0.7142857142857143 -0.7142857142857143 2.312535423847214 -0.5714285714285714 -0.7142857142857143 2.312535423847214
          -0.4285714285714286 -0.7142857142857143 2.312535423847214 -0.2857142857142858 -0.7142857142857143 2.312535423847214
          -0.1428571428571429 -0.7142857142857143 2.312535423847214 0.0 -0.7142857142857143 2.21992651859383
          0.1428571428571428 -0.7142857142857143 2.176850803324224 0.2857142857142856 -0.7142857142857143 2.2917578317845515
          0.4285714285714284 -0.7142857142857143 2.312535423847214 0.5714285714285714 -0.7142857142857143 2.312535423847214
          0.7142857142857142 -0.7142857142857143 2.312535423847214 0.857142857142857 -0.7142857142857143 2.312535423847214
          1.0 -0.7142857142857143 2.312535423847214 -1.0 -0.5714285714285714 2.312535423847214
          -0.8571428571428572 -0.5714285714285714 2.312535423847214 -0.7142857142857143 -0.5714285714285714 2.312535423847214
          -0.5714285714285714 -0.5714285714285714 2.312535423847214 -0.4285714285714286 -0.5714285714285714 2.3113005129418283
          -0.2857142857142858 -0.5714285714285714 2.142823403305623 -0.1428571428571429 -0.5714285714285714 1.9922914284265947
          0.0 -0.5714285714285714 1.943099071243616 0.1428571428571428 -0.5714285714285714 1.960804059223375
          0.2857142857142856 -0.5714285714285714 1.9630838900918746 0.4285714285714284 -0.5714285714285714 2.294890102756491
          0.5714285714285714 -0.5714285714285714 2.312535423847214 0.7142857142857142 -0.5714285714285714 2.312535423847214
          0.857142857142857 -0.5714285714285714 2.312535423847214 1.0 -0.5714285714285714 2.312535423847214
          -1.0 -0.4285714285714286 2.312535423847214 -0.8571428571428572 -0.4285714285714286 2.312535423847214
          -0.7142857142857143 -0.4285714285714286 2.312535423847214 -0.5714285714285714 -0.4285714285714286 2.0652893871997016
          -0.4285714285714286 -0.4285714285714286 1.824789712647013 -0.2857142857142858 -0.4285714285714286 1.5828673733073255
          -0.1428571428571429 -0.4285714285714286 1.300068326732801 0.0 -0.4285714285714286 1.1222163948547923
          0.1428571428571428 -0.4285714285714286 1.225822280005892 0.2857142857142856 -0.4285714285714286 1.574851732785823
          0.4285714285714284 -0.4285714285714286 1.9224121732192139 0.5714285714285714 -0.4285714285714286 2.312535423847214
          0.7142857142857142 -0.4285714285714286 2.312535423847214 0.857142857142857 -0.4285714285714286 2.312535423847214
          1.0 -0.4285714285714286 2.312535423847214 -1.0 -0.2857142857142858 2.312535423847214
          -0.8571428571428572 -0.2857142857142858 2.312535423847214 -0.7142857142857143 -0.2857142857142858 2.068523251276455
          -0.5714285714285714 -0.2857142857142858 1.8061877127117403 -0.4285714285714286 -0.2857142857142858 1.2335125720469389
          -0.2857142857142858 -0.2857142857142858 0.6393968256073341 -0.1428571428571429 -0.2857142857142858 0.015462866947346943
          0.0 -0.2857142857142858 -0.44042965123143046 0.1428571428571428 -0.2857142857142858 -0.16623602175575186
          0.2857142857142856 -0.2857142857142858 0.7335543843056579 0.4285714285714284 -0.2857142857142858 1.5942642791385544
          0.5714285714285714 -0.2857142857142858 2.081959387805586 0.7142857142857142 -0.2857142857142858 2.312535423847214
          0.857142857142857 -0.2857142857142858 2.312535423847214 1.0 -0.2857142857142858 2.312535423847214
          -1.0 -0.1428571428571429 2.312535423847214 -0.8571428571428572 -0.1428571428571429 2.312535423847214
          -0.7142857142857143 -0.1428571428571429 1.985548249334135 -0.5714285714285714 -0.1428571428571429 1.5435787915634256
          -0.4285714285714286 -0.1428571428571429 0.6147662185486714 -0.2857142857142858 -0.1428571428571429 -0.406642955581489
          -0.1428571428571429 -0.1428571428571429 -1.4385674941660727 0.0 -0.1428571428571429 -1.843851106511739
          0.1428571428571428 -0.1428571428571429 -1.4391191133807335 0.2857142857142856 -0.1428571428571429 -0.19060301366381563
          0.4285714285714284 -0.1428571428571429 1.0685410630799645 0.5714285714285714 -0.1428571428571429 1.7645199934207316
          0.7142857142857142 -0.1428571428571429 2.1010709629818067 0.857142857142857 -0.1428571428571429 2.312535423847214
          1.0 -0.1428571428571429 2.312535423847214 -1.0 0.0 2.312535423847214
          -0.8571428571428572 0.0 2.2003229550132923 -0.7142857142857143 0.0 2.032312949052369
          -0.5714285714285714 0.0 1.4414424842113123 -0.4285714285714286 0.0 0.37717834897398506
          -0.2857142857142858 0.0 -0.9311968633573838 -0.1428571428571429 0.0 -1.9059023279249154
          0.0 0.0 -2.052063244915268 0.1428571428571428 0.0 -1.852187363450189
          0.2857142857142856 0.0 -0.71529631914066 0.4285714285714284 0.0 0.647201403701293
          0.5714285714285714 0.0 1.4322242332013817 0.7142857142857142 0.0 1.7982383024714534
          0.857142857142857 0.0 2.312535423847214 1.0 0.0 2.312535423847214
          -1.0 0.1428571428571428 2.312535423847214 -0.8571428571428572 0.1428571428571428 2.1172601085238276
          -0.7142857142857143 0.1428571428571428 2.0910214461861645 -0.5714285714285714 0.1428571428571428 1.6042012037210776
          -0.4285714285714286 0.1428571428571428 0.6832667885146639 -0.2857142857142858 0.1428571428571428 -0.6188514650758399
          -0.1428571428571429 0.1428571428571428 -1.6414810340903854 0.0 0.1428571428571428 -1.9589141678392776
          0.1428571428571428 0.1428571428571428 -1.6314792696770413 0.2857142857142856 0.1428571428571428 -0.45908692026668135
          0.4285714285714284 0.1428571428571428 0.7063773102806108 0.5714285714285714 0.1428571428571428 1.3115457739181342
          0.7142857142857142 0.1428571428571428 1.6957022094722585 0.857142857142857 0.1428571428571428 2.312535423847214
          1.0 0.1428571428571428 2.312535423847214 -1.0 0.2857142857142856 2.312535423847214
          -0.8571428571428572 0.2857142857142856 2.0742124635710093 -0.7142857142857143 0.2857142857142856 2.1385916988910134
          -0.5714285714285714 0.2857142857142856 1.854418272990603 -0.4285714285714286 0.2857142857142856 1.1569037836714033
          -0.2857142857142858 0.2857142857142856 0.1757238159428947 -0.1428571428571429 0.2857142857142856 -0.6242907786811782
          0.0 0.2857142857142856 -1.0061624050911835 0.1428571428571428 0.2857142857142856 -0.5354988999143985
          0.2857142857142856 0.2857142857142856 0.307482404111 0.4285714285714284 0.2857142857142856 1.0064790695743135
          0.5714285714285714 0.2857142857142856 1.2837852231488864 0.7142857142857142 0.2857142857142856 1.7665838562659522
          0.857142857142857 0.2857142857142856 2.312535423847214 1.0 0.2857142857142856 2.312535423847214
          -1.0 0.4285714285714284 2.312535423847214 -0.8571428571428572 0.4285714285714284 2.1749864671142856
          -0.7142857142857143 0.4285714285714284 2.3083882836615057 -0.5714285714285714 0.4285714285714284 2.1426656036417615
          -0.4285714285714286 0.4285714285714284 1.599704485132072 -0.2857142857142858 0.4285714285714284 0.9895677110238424
          -0.1428571428571429 0.4285714285714284 0.5839024577889257 0.0 0.4285714285714284 0.387983006906852
          0.1428571428571428 0.4285714285714284 0.6059641336526066 0.2857142857142856 0.4285714285714284 0.9858900705213489
          0.4285714285714284 0.4285714285714284 1.259492577871079 0.5714285714285714 0.4285714285714284 1.6000672626017178
          0.7142857142857142 0.4285714285714284 2.2115225619768504 0.857142857142857 0.4285714285714284 2.312535423847214
          1.0 0.4285714285714284 2.312535423847214 -1.0 0.5714285714285714 2.312535423847214
          -0.8571428571428572 0.5714285714285714 2.312535423847214 -0.7142857142857143 0.5714285714285714 2.1551912232377997
          -0.5714285714285714 0.5714285714285714 2.2286366651568486 -0.4285714285714286 0.5714285714285714 1.9774547405089102
          -0.2857142857142858 0.5714285714285714 1.6336299909915295 -0.1428571428571429 0.5714285714285714 1.3774040669526704
          0.0 0.5714285714285714 1.1986032978228678 0.1428571428571428 0.5714285714285714 1.206529520908935
          0.2857142857142856 0.5714285714285714 1.289857189586274 0.4285714285714284 0.5714285714285714 1.6205980584938684
          0.5714285714285714 0.5714285714285714 2.2542861582401867 0.7142857142857142 0.5714285714285714 2.312535423847214
          0.857142857142857 0.5714285714285714 2.312535423847214 1.0 0.5714285714285714 2.312535423847214
          -1.0 0.7142857142857142 2.312535423847214 -0.8571428571428572 0.7142857142857142 2.312535423847214
          -0.7142857142857143 0.7142857142857142 2.312535423847214 -0.5714285714285714 0.7142857142857142 2.2545230100577065
          -0.4285714285714286 0.7142857142857142 2.1221307794866826 -0.2857142857142858 0.7142857142857142 2.0055066412605145
          -0.1428571428571429 0.7142857142857142 1.7563752676615614 0.0 0.7142857142857142 1.4559970820953616
          0.1428571428571428 0.7142857142857142 1.3182568610853203 0.2857142857142856 0.7142857142857142 1.6560527993398342
          0.4285714285714284 0.7142857142857142 2.312535423847214 0.5714285714285714 0.7142857142857142 2.312535423847214
          0.7142857142857142 0.7142857142857142 2.312535423847214 0.857142857142857 0.7142857142857142 2.312535423847214
          1.0 0.7142857142857142 2.312535423847214 -1.0 0.857142857142857 2.312535423847214
          -0.8571428571428572 0.857142857142857 2.312535423847214 -0.7142857142857143 0.857142857142857 2.312535423847214
          -0.5714285714285714 0.857142857142857 2.312535423847214 -0.4285714285714286 0.857142857142857 2.312535423847214
          -0.2857142857142858 0.857142857142857 2.1391740344591224 -0.1428571428571429 0.857142857142857 1.8884983230284162
          0.0 0.857142857142857 1.6146409240638966 0.1428571428571428 0.857142857142857 1.8194558292166467
          0.2857142857142856 0.857142857142857 2.312535423847214 0.4285714285714284 0.857142857142857 2.312535423847214
          0.5714285714285714 0.857142857142857 2.312535423847214 0.7142857142857142 0.857142857142857 2.312535423847214
          0.857142857142857 0.857142857142857 2.312535423847214 1.0 0.857142857142857 2.312535423847214
          -1.0 1.0 2.312535423847214 -0.8571428571428572 1.0 2.312535423847214
          -0.7142857142857143 1.0 2.312535423847214 -0.5714285714285714 1.0 2.312535423847214
          -0.4285714285714286 1.0 2.312535423847214 -0.2857142857142858 1.0 2.312535423847214
          -0.1428571428571429 1.0 2.312535423847214 0.0 1.0 2.312535423847214
          0.1428571428571428 1.0 2.312535423847214 0.2857142857142856 1.0 2.312535423847214
          0.4285714285714284 1.0 2.312535423847214 0.5714285714285714 1.0 2.312535423847214
          0.7142857142857142 1.0 2.312535423847214 0.857142857142857 1.0 2.312535423847214
          1.0 1.0 2.312535423847214 
        </DataArray>
      </Points>
      <Verts>
        <DataArray type="Int64" Name="connectivity" format="ascii" RangeMin="0" RangeMax="224">
        </DataArray>
        <DataArray type="Int64" Name="offsets" format="ascii" RangeMin="1" RangeMax="225">
        </DataArray>
      </Verts>
      <Lines>
        <DataArray type="Int64" Name="connectivity" format="ascii" RangeMin="0" RangeMax="195">
        </DataArray>
        <DataArray type="Int64" Name="offsets" format="ascii" RangeMin="1" RangeMax="196">
        </DataArray>
      </Lines>
      <Strips>
        <DataArray type="Int64" Name="connectivity" format="ascii" RangeMin="0" RangeMax="195">
        </DataArray>
        <DataArray type="Int64" Name="offsets" format="ascii" RangeMin="1" RangeMax="196">
        </DataArray>
      </Strips>
      <Polys>
        <DataArray type="Int64" Name="connectivity" format="ascii" RangeMin="0" RangeMax="195">
          0 1 16 15 1 2 17 16
          2 3 18 17 3 4 19 18
          4 5 20 19 5 6 21 20
          6 7 22 21 7 8 23 22
          8 9 24 23 9 10 25 24
          10 11 26 25 11 12 27 26
          12 13 28 27 13 14 29 28
          15 16 31 30 16 17 32 31
          17 18 33 32 18 19 34 33
          19 20 35 34 20 21 36 35
          21 22 37 36 22 23 38 37
          23 24 39 38 24 25 40 39
          25 26 41 40 26 27 42 41
          27 28 43 42 28 29 44 43
          30 31 46 45 31 32 47 46
          32 33 48 47 33 34 49 48
          34 35 50 49 35 36 51 50
          36 37 52 51 37 38 53 52
          38 39 54 53 39 40 55 54
          40 41 56 55 41 42 57 56
          42 43 58 57 43 44 59 58
          45 46 61 60 46 47 62 61
          47 48 63 62 48 49 64 63
          49 50 65 64 50 51 66 65
          51 52 67 66 52 53 68 67
          53 54 69 68 54 55 70 69
          55 56 71 70 56 57 72 71
          57 58 73 72 58 59 74 73
          60 61 76 75 61 62 77 76
          62 63 78 77 63 64 79 78
          64 65 80 79 65 66 81 80
          66 67 82 81 67 68 83 82
          68 69 84 83 69 70 85 84
          70 71 86 85 71 72 87 86
          72 73 88 87 73 74 89 88
          75 76 91 90 76 77 92 91
          77 78 93 92 78 79 94 93
          79 80 95 94 80 81 96 95
          81 82 97 96 82 83 98 97
          83 84 99 98 84 85 100 99
          85 86 101 100 86 87 102 101
          87 88 103 102 88 89 104 103
          90 91 106 105 91 92 107 106
          92 93 108 107 93 94 109 108
          94 95 110 109 95 96 111 110
          96 97 112 111 97 98 113 112
          98 99 114 113 99 100 115 114
          100 101 116 115 101 102 117 116
          102 103 118 117 103 104 119 118
          105 106 121 120 106 107 122 121
          107 108 123 122 108 109 124 123
          109 110 125 124 110 111 126 125
          111 112 127 126 112 113 128 127
          113 114 129 128 114 115 130 129
          115 116 131 130 116 117 132 131
          117 118 133 132 118 119 134 133
          120 121 136 135 121 122 137 136
          122 123 138 137 123 124 139 138
          124 125 140 139 125 126 141 140
          126 127 142 141 127 128 143 142
          128 129 144 143 129 130 145 144
          130 131 146 145 131 132 147 146
          132 133 148 147 133 134 149 148
          135 136 151 150 136 137 152 151
          137 138 153 152 138 139 154 153
          139 140 155 154 140 141 156 155
          141 142 157 156 142 143 158 157
          143 144 159 158 144 145 160 159
          145 146 161 160 146 147 162 161
          147 148 163 162 148 149 164 163
          150 151 166 165 151 152 167 166
          152 153 168 167 153 154 169 168
          154 155 170 169 155 156 171 170
          156 157 172 171 157 158 173 172
          158 159 174 173 159 160 175 174
          160 161 176 175 161 162 177 176
          162 163 178 177 163 164 179 178
          165 166 181 180 166 167 182 181
          167 168 183 182 168 169 184 183
          169 170 185 184 170 171 186 185
          171 172 187 186 172 173 188 187
          173 174 189 188 174 175 190 189
          175 176 191 190 176 177 192 191
          177 178 193 192 178 179 194 193
          180 181 196 195 181 182 197 196
          182 183 198 197 183 184 199 198
          184 185 200 199 185 186 201 200
          186 187 202 201 187 188 203 202
          188 189 204 203 189 190 205 204
          190 191 206 205 191 192 207 206
          192 193 208 207 193 194 209 208
          195 196 211 210 196 197 212 211
          197 198 213 212 198 199 214 213
          199 200 215 214 200 201 216 215
          201 202 217 216 202 203 218 217
          203 204 219 218 204 205 220 219
          205 206 221 220 206 207 222 221
          207 208 223 222 208 209 224 223
        </DataArray>
        <DataArray type="Int64" Name="offsets" format="ascii" RangeMin="1" RangeMax="196">
          4 8 12 16 20 24
          28 32 36 40 44 48
          52 56 60 64 68 72
          76 80 84 88 92 96
          100 104 108 112 116 120
          124 128 132 136 140 144
          148 152 156 160 164 168
          172 176 180 184 188 192
          196 200 204 208 212 216
          220 224 228 232 236 240
          244 248 252 256 260 264
          268 272 276 280 284 288
          292 296 300 304 308 312
          316 320 324 328 332 336
          340 344 348 352 356 360
          364 368 372 376 380 384
          388 392 396 400 404 408
          412 416 420 424 428 432
          436 440 444 448 452 456
          460 464 468 472 476 480
          484 488 492 496 500 504
          508 512 516 520 524 528
          532 536 540 544 548 552
          556 560 564 568 572 576
          580 584 588 592 596 600
          604 608 612 616 620 624
          628 632 636 640 644 648
          652 656 660 664 668 672
          676 680 684 688 692 696
          700 704 708 712 716 720
          724 728 732 736 740 744
          748 752 756 760 764 768
          772 776 780 784 
        </DataArray>
      </Polys>
    </Piece>
  </PolyData>
</VTKFile>
